LAMMPS data file. CGCMM style. atom_style full generated by VMD/TopoTools v1.7 on Thu Jun 20 12:32:26 IST 2024
 8976 atoms
 5984 bonds
 2992 angles
 0 dihedrals
 0 impropers
 2 atom types
 1 bond types
 1 angle types
 0 dihedral types
 0 improper types
  -20.0700 20.0580  xlo xhi
  -20.0980 20.0820  ylo yhi
  -27.5880 27.5520  zlo zhi

# Pair Coeffs
#
# 1  1OT
# 2  2HT

# Bond Coeffs
#
# 1  1OT-2HT

# Angle Coeffs
#
# 1  2HT-1OT-2HT

 Masses

 1 15.999000 # 1OT
 2 1.008000 # 2HT

 Atoms # full

1 1 2 0.423800 4.462000 -13.045000 16.698999 # 2HT TIP3
2 1 2 0.423800 3.154000 -12.907000 17.666000 # 2HT TIP3
3 1 1 -0.847600 4.101000 -13.220000 17.615000 # 1OT TIP3
4 2 2 0.423800 -13.583000 -17.069000 27.496000 # 2HT TIP3
5 2 2 0.423800 -11.961000 -17.259001 27.504999 # 2HT TIP3
6 2 1 -0.847600 -12.736000 -16.882000 26.999001 # 1OT TIP3
7 3 2 0.423800 13.965000 16.049999 -7.781000 # 2HT TIP3
8 3 2 0.423800 13.530000 16.427000 -6.253000 # 2HT TIP3
9 3 1 -0.847600 13.208000 16.337999 -7.195000 # 1OT TIP3
10 4 2 0.423800 -14.714000 11.269000 -2.831000 # 2HT TIP3
11 4 2 0.423800 -14.729000 11.947000 -4.316000 # 2HT TIP3
12 4 1 -0.847600 -14.170000 11.455000 -3.649000 # 1OT TIP3
13 5 2 0.423800 13.433000 -0.124000 18.462999 # 2HT TIP3
14 5 2 0.423800 11.805000 -0.231000 18.402000 # 2HT TIP3
15 5 1 -0.847600 12.575000 0.328000 18.707001 # 1OT TIP3
16 6 2 0.423800 -6.943000 12.485000 20.708000 # 2HT TIP3
17 6 2 0.423800 -6.976000 13.946000 21.434999 # 2HT TIP3
18 6 1 -0.847600 -6.493000 13.073000 21.379999 # 1OT TIP3
19 7 2 0.423800 8.724000 19.531000 7.757000 # 2HT TIP3
20 7 2 0.423800 7.250000 19.259001 7.109000 # 2HT TIP3
21 7 1 -0.847600 8.090000 19.792999 7.029000 # 1OT TIP3
22 8 2 0.423800 11.832000 -4.378000 -1.927000 # 2HT TIP3
23 8 2 0.423800 10.394000 -4.519000 -1.167000 # 2HT TIP3
24 8 1 -0.847600 10.851000 -4.194000 -1.994000 # 1OT TIP3
25 9 2 0.423800 -4.711000 -8.638000 12.361000 # 2HT TIP3
26 9 2 0.423800 -6.158000 -8.540000 11.610000 # 2HT TIP3
27 9 1 -0.847600 -5.701000 -8.610000 12.497000 # 1OT TIP3
28 10 2 0.423800 -18.978001 16.080999 -14.799000 # 2HT TIP3
29 10 2 0.423800 -20.002001 14.820000 -14.631000 # 2HT TIP3
30 10 1 -0.847600 -19.563999 15.434000 -15.287000 # 1OT TIP3
31 11 2 0.423800 11.852000 -17.621000 -15.330000 # 2HT TIP3
32 11 2 0.423800 10.699000 -18.754000 -15.097000 # 2HT TIP3
33 11 1 -0.847600 11.621000 -18.464001 -14.843000 # 1OT TIP3
34 12 2 0.423800 3.676000 7.703000 13.081000 # 2HT TIP3
35 12 2 0.423800 3.470000 6.086000 12.974000 # 2HT TIP3
36 12 1 -0.847600 3.044000 6.947000 13.251000 # 1OT TIP3
37 13 2 0.423800 -6.388000 -10.854000 17.099001 # 2HT TIP3
38 13 2 0.423800 -5.228000 -11.335000 16.055000 # 2HT TIP3
39 13 1 -0.847600 -5.775000 -10.559000 16.365000 # 1OT TIP3
40 14 2 0.423800 -15.708000 0.591000 -4.947000 # 2HT TIP3
41 14 2 0.423800 -15.430000 -0.877000 -4.289000 # 2HT TIP3
42 14 1 -0.847600 -15.701000 -0.394000 -5.120000 # 1OT TIP3
43 15 2 0.423800 -3.878000 9.419000 -7.075000 # 2HT TIP3
44 15 2 0.423800 -5.417000 9.329000 -6.536000 # 2HT TIP3
45 15 1 -0.847600 -4.712000 9.941000 -6.893000 # 1OT TIP3
46 16 2 0.423800 -6.575000 -0.621000 14.775000 # 2HT TIP3
47 16 2 0.423800 -8.079000 -1.018000 14.279000 # 2HT TIP3
48 16 1 -0.847600 -7.352000 -1.232000 14.929000 # 1OT TIP3
49 17 2 0.423800 -4.973000 14.405000 22.417999 # 2HT TIP3
50 17 2 0.423800 -3.597000 13.565000 22.162001 # 2HT TIP3
51 17 1 -0.847600 -4.187000 13.971000 22.858000 # 1OT TIP3
52 18 2 0.423800 14.783000 -15.570000 22.499001 # 2HT TIP3
53 18 2 0.423800 14.487000 -15.766000 20.905001 # 2HT TIP3
54 18 1 -0.847600 15.201000 -15.719000 21.601999 # 1OT TIP3
55 19 2 0.423800 18.711000 -0.136000 2.925000 # 2HT TIP3
56 19 2 0.423800 20.007000 0.595000 3.596000 # 2HT TIP3
57 19 1 -0.847600 19.009001 0.540000 3.598000 # 1OT TIP3
58 20 2 0.423800 -14.815000 20.013000 -0.386000 # 2HT TIP3
59 20 2 0.423800 -13.947000 20.000999 -1.770000 # 2HT TIP3
60 20 1 -0.847600 -13.982000 19.674999 -0.825000 # 1OT TIP3
61 21 2 0.423800 13.156000 11.472000 -3.222000 # 2HT TIP3
62 21 2 0.423800 12.154000 12.145000 -2.122000 # 2HT TIP3
63 21 1 -0.847600 13.110000 12.014000 -2.383000 # 1OT TIP3
64 22 2 0.423800 -14.940000 10.579000 -8.465000 # 2HT TIP3
65 22 2 0.423800 -13.405000 11.108000 -8.291000 # 2HT TIP3
66 22 1 -0.847600 -14.133000 10.567000 -7.874000 # 1OT TIP3
67 23 2 0.423800 19.136000 -19.889999 0.869000 # 2HT TIP3
68 23 2 0.423800 18.062000 -18.997999 1.714000 # 2HT TIP3
69 23 1 -0.847600 18.195999 -19.849001 1.208000 # 1OT TIP3
70 24 2 0.423800 -12.429000 -17.497999 16.964001 # 2HT TIP3
71 24 2 0.423800 -14.009000 -17.822001 16.708000 # 2HT TIP3
72 24 1 -0.847600 -13.270000 -17.844999 17.381001 # 1OT TIP3
73 25 2 0.423800 16.332001 -12.466000 2.766000 # 2HT TIP3
74 25 2 0.423800 16.738001 -12.412000 4.347000 # 2HT TIP3
75 25 1 -0.847600 16.469999 -11.866000 3.555000 # 1OT TIP3
76 26 2 0.423800 -5.179000 12.045000 -11.815000 # 2HT TIP3
77 26 2 0.423800 -3.879000 11.395000 -11.072000 # 2HT TIP3
78 26 1 -0.847600 -4.536000 12.148000 -11.057000 # 1OT TIP3
79 27 2 0.423800 -7.636000 -11.608000 27.207001 # 2HT TIP3
80 27 2 0.423800 -8.571000 -12.931000 27.414000 # 2HT TIP3
81 27 1 -0.847600 -7.646000 -12.563000 27.507000 # 1OT TIP3
82 28 2 0.423800 18.222000 -19.174999 23.274000 # 2HT TIP3
83 28 2 0.423800 16.799999 -19.944000 23.509001 # 2HT TIP3
84 28 1 -0.847600 17.771000 -20.066999 23.306999 # 1OT TIP3
85 29 2 0.423800 6.768000 17.980000 -24.476000 # 2HT TIP3
86 29 2 0.423800 5.551000 17.742001 -25.539000 # 2HT TIP3
87 29 1 -0.847600 6.532000 17.632000 -25.382999 # 1OT TIP3
88 30 2 0.423800 14.353000 -9.373000 -20.513000 # 2HT TIP3
89 30 2 0.423800 15.037000 -10.809000 -20.882999 # 2HT TIP3
90 30 1 -0.847600 14.257000 -10.366000 -20.443001 # 1OT TIP3
91 31 2 0.423800 -11.712000 1.943000 -14.456000 # 2HT TIP3
92 31 2 0.423800 -11.560000 0.336000 -14.208000 # 2HT TIP3
93 31 1 -0.847600 -11.857000 1.200000 -13.802000 # 1OT TIP3
94 32 2 0.423800 3.053000 -12.366000 25.337000 # 2HT TIP3
95 32 2 0.423800 2.164000 -11.645000 26.502001 # 2HT TIP3
96 32 1 -0.847600 2.753000 -11.488000 25.709999 # 1OT TIP3
97 33 2 0.423800 15.060000 -18.434000 1.752000 # 2HT TIP3
98 33 2 0.423800 14.643000 -20.011999 1.806000 # 2HT TIP3
99 33 1 -0.847600 15.407000 -19.372000 1.737000 # 1OT TIP3
100 34 2 0.423800 9.477000 4.846000 15.676000 # 2HT TIP3
101 34 2 0.423800 8.705000 3.979000 14.527000 # 2HT TIP3
102 34 1 -0.847600 8.718000 4.219000 15.497000 # 1OT TIP3
103 35 2 0.423800 -1.006000 9.987000 5.417000 # 2HT TIP3
104 35 2 0.423800 0.552000 9.498000 5.461000 # 2HT TIP3
105 35 1 -0.847600 -0.356000 9.298000 5.094000 # 1OT TIP3
106 36 2 0.423800 20.002001 -2.865000 24.434000 # 2HT TIP3
107 36 2 0.423800 19.291000 -4.233000 23.896999 # 2HT TIP3
108 36 1 -0.847600 19.224001 -3.237000 23.927000 # 1OT TIP3
109 37 2 0.423800 -18.896000 1.388000 7.835000 # 2HT TIP3
110 37 2 0.423800 -17.478001 0.684000 8.237000 # 2HT TIP3
111 37 1 -0.847600 -18.440001 0.518000 8.023000 # 1OT TIP3
112 38 2 0.423800 4.661000 -2.385000 -5.575000 # 2HT TIP3
113 38 2 0.423800 4.001000 -3.851000 -5.289000 # 2HT TIP3
114 38 1 -0.847600 4.858000 -3.350000 -5.401000 # 1OT TIP3
115 39 2 0.423800 16.499001 -6.813000 -12.444000 # 2HT TIP3
116 39 2 0.423800 15.522000 -7.667000 -13.436000 # 2HT TIP3
117 39 1 -0.847600 15.954000 -6.779000 -13.282000 # 1OT TIP3
118 40 2 0.423800 -12.960000 6.822000 -19.410000 # 2HT TIP3
119 40 2 0.423800 -11.981000 6.958000 -20.709999 # 2HT TIP3
120 40 1 -0.847600 -12.258000 6.363000 -19.955999 # 1OT TIP3
121 41 2 0.423800 -2.058000 14.224000 15.359000 # 2HT TIP3
122 41 2 0.423800 -3.341000 15.061000 15.926000 # 2HT TIP3
123 41 1 -0.847600 -2.648000 14.377000 16.152000 # 1OT TIP3
124 42 2 0.423800 6.061000 -9.572000 -20.603001 # 2HT TIP3
125 42 2 0.423800 5.426000 -8.646000 -19.417000 # 2HT TIP3
126 42 1 -0.847600 5.884000 -8.634000 -20.305000 # 1OT TIP3
127 43 2 0.423800 -13.332000 -15.546000 24.093000 # 2HT TIP3
128 43 2 0.423800 -13.677000 -17.058001 24.605000 # 2HT TIP3
129 43 1 -0.847600 -13.333000 -16.160999 24.882000 # 1OT TIP3
130 44 2 0.423800 8.268000 13.109000 16.260000 # 2HT TIP3
131 44 2 0.423800 8.979000 11.640000 16.333000 # 2HT TIP3
132 44 1 -0.847600 9.134000 12.615000 16.174999 # 1OT TIP3
133 45 2 0.423800 3.638000 15.692000 1.490000 # 2HT TIP3
134 45 2 0.423800 4.389000 16.506001 2.690000 # 2HT TIP3
135 45 1 -0.847600 4.444000 15.715000 2.082000 # 1OT TIP3
136 46 2 0.423800 -16.424000 -11.454000 -4.623000 # 2HT TIP3
137 46 2 0.423800 -15.385000 -10.431000 -5.360000 # 2HT TIP3
138 46 1 -0.847600 -16.334000 -10.567000 -5.078000 # 1OT TIP3
139 47 2 0.423800 10.525000 -0.691000 -21.611000 # 2HT TIP3
140 47 2 0.423800 11.964000 -0.296000 -20.948000 # 2HT TIP3
141 47 1 -0.847600 11.033000 0.021000 -21.125999 # 1OT TIP3
142 48 2 0.423800 1.832000 -6.535000 -14.935000 # 2HT TIP3
143 48 2 0.423800 1.491000 -5.061000 -15.550000 # 2HT TIP3
144 48 1 -0.847600 1.139000 -5.816000 -14.998000 # 1OT TIP3
145 49 2 0.423800 8.146000 -16.162001 -6.552000 # 2HT TIP3
146 49 2 0.423800 7.459000 -14.682000 -6.610000 # 2HT TIP3
147 49 1 -0.847600 7.281000 -15.665000 -6.625000 # 1OT TIP3
148 50 2 0.423800 14.339000 10.943000 16.606001 # 2HT TIP3
149 50 2 0.423800 13.575000 12.295000 16.103001 # 2HT TIP3
150 50 1 -0.847600 13.451000 11.344000 16.381001 # 1OT TIP3
151 51 2 0.423800 5.489000 -4.074000 23.462999 # 2HT TIP3
152 51 2 0.423800 6.676000 -2.995000 23.768999 # 2HT TIP3
153 51 1 -0.847600 5.688000 -3.143000 23.770000 # 1OT TIP3
154 52 2 0.423800 -3.223000 -13.626000 6.300000 # 2HT TIP3
155 52 2 0.423800 -3.751000 -14.383000 7.647000 # 2HT TIP3
156 52 1 -0.847600 -3.268000 -14.502000 6.781000 # 1OT TIP3
157 53 2 0.423800 -14.999000 -11.490000 -0.585000 # 2HT TIP3
158 53 2 0.423800 -15.454000 -12.669000 0.449000 # 2HT TIP3
159 53 1 -0.847600 -15.101000 -11.736000 0.379000 # 1OT TIP3
160 54 2 0.423800 -19.712999 1.776000 24.990999 # 2HT TIP3
161 54 2 0.423800 -18.805000 3.051000 25.455999 # 2HT TIP3
162 54 1 -0.847600 -19.549999 2.754000 24.860001 # 1OT TIP3
163 55 2 0.423800 11.220000 17.099001 5.955000 # 2HT TIP3
164 55 2 0.423800 11.761000 18.541000 5.413000 # 2HT TIP3
165 55 1 -0.847600 11.263000 18.079000 6.146000 # 1OT TIP3
166 56 2 0.423800 10.095000 -4.687000 -17.528999 # 2HT TIP3
167 56 2 0.423800 9.201000 -4.122000 -18.774000 # 2HT TIP3
168 56 1 -0.847600 9.793000 -3.864000 -18.011000 # 1OT TIP3
169 57 2 0.423800 4.051000 6.713000 -7.265000 # 2HT TIP3
170 57 2 0.423800 4.670000 8.003000 -8.052000 # 2HT TIP3
171 57 1 -0.847600 4.868000 7.276000 -7.396000 # 1OT TIP3
172 58 2 0.423800 3.771000 2.121000 21.090000 # 2HT TIP3
173 58 2 0.423800 4.589000 3.512000 20.841000 # 2HT TIP3
174 58 1 -0.847600 3.867000 3.075000 21.375999 # 1OT TIP3
175 59 2 0.423800 16.183001 -18.771999 7.156000 # 2HT TIP3
176 59 2 0.423800 17.150999 -17.599001 6.560000 # 2HT TIP3
177 59 1 -0.847600 16.360001 -18.180000 6.369000 # 1OT TIP3
178 60 2 0.423800 7.222000 6.019000 -24.865000 # 2HT TIP3
179 60 2 0.423800 8.093000 6.095000 -26.245001 # 2HT TIP3
180 60 1 -0.847600 7.475000 6.597000 -25.641001 # 1OT TIP3
181 61 2 0.423800 17.278999 -2.318000 -3.982000 # 2HT TIP3
182 61 2 0.423800 17.193001 -3.500000 -2.858000 # 2HT TIP3
183 61 1 -0.847600 17.315001 -2.519000 -3.003000 # 1OT TIP3
184 62 2 0.423800 -20.011000 -6.109000 -2.184000 # 2HT TIP3
185 62 2 0.423800 -18.445000 -5.754000 -1.885000 # 2HT TIP3
186 62 1 -0.847600 -19.320999 -5.384000 -2.192000 # 1OT TIP3
187 63 2 0.423800 0.439000 -4.021000 4.311000 # 2HT TIP3
188 63 2 0.423800 -0.823000 -5.057000 4.281000 # 2HT TIP3
189 63 1 -0.847600 0.165000 -4.971000 4.162000 # 1OT TIP3
190 64 2 0.423800 -17.122999 17.254000 -17.281000 # 2HT TIP3
191 64 2 0.423800 -15.843000 17.635000 -16.341000 # 2HT TIP3
192 64 1 -0.847600 -16.532000 17.997000 -16.968000 # 1OT TIP3
193 65 2 0.423800 -17.549000 -14.672000 -3.440000 # 2HT TIP3
194 65 2 0.423800 -15.979000 -15.117000 -3.494000 # 2HT TIP3
195 65 1 -0.847600 -16.896000 -15.319000 -3.835000 # 1OT TIP3
196 66 2 0.423800 14.235000 1.253000 6.668000 # 2HT TIP3
197 66 2 0.423800 13.238000 2.537000 6.823000 # 2HT TIP3
198 66 1 -0.847600 14.193000 2.244000 6.793000 # 1OT TIP3
199 67 2 0.423800 -15.813000 -17.716000 -21.565001 # 2HT TIP3
200 67 2 0.423800 -17.150999 -17.107000 -22.275999 # 2HT TIP3
201 67 1 -0.847600 -16.427000 -17.791000 -22.351999 # 1OT TIP3
202 68 2 0.423800 -12.463000 -18.721001 -22.980000 # 2HT TIP3
203 68 2 0.423800 -12.203000 -20.004000 -23.957001 # 2HT TIP3
204 68 1 -0.847600 -12.584000 -19.709000 -23.080999 # 1OT TIP3
205 69 2 0.423800 18.475000 14.933000 -3.785000 # 2HT TIP3
206 69 2 0.423800 20.002001 14.354000 -3.788000 # 2HT TIP3
207 69 1 -0.847600 19.444000 15.183000 -3.790000 # 1OT TIP3
208 70 2 0.423800 -3.328000 13.039000 13.030000 # 2HT TIP3
209 70 2 0.423800 -4.289000 12.693000 14.304000 # 2HT TIP3
210 70 1 -0.847600 -3.356000 12.911000 14.022000 # 1OT TIP3
211 71 2 0.423800 -11.950000 -13.474000 18.245001 # 2HT TIP3
212 71 2 0.423800 -11.381000 -14.421000 17.042000 # 2HT TIP3
213 71 1 -0.847600 -12.040000 -14.361000 17.791000 # 1OT TIP3
214 72 2 0.423800 12.535000 -18.086000 -19.194000 # 2HT TIP3
215 72 2 0.423800 11.822000 -19.555000 -19.177999 # 2HT TIP3
216 72 1 -0.847600 12.688000 -19.069000 -19.292999 # 1OT TIP3
217 73 2 0.423800 6.142000 3.399000 -14.498000 # 2HT TIP3
218 73 2 0.423800 7.197000 4.516000 -15.050000 # 2HT TIP3
219 73 1 -0.847600 6.274000 4.146000 -15.149000 # 1OT TIP3
220 74 2 0.423800 -15.731000 -7.802000 -26.718000 # 2HT TIP3
221 74 2 0.423800 -15.183000 -7.861000 -25.180000 # 2HT TIP3
222 74 1 -0.847600 -15.210000 -7.315000 -26.017000 # 1OT TIP3
223 75 2 0.423800 -3.803000 -9.176000 -10.645000 # 2HT TIP3
224 75 2 0.423800 -5.425000 -9.105000 -10.474000 # 2HT TIP3
225 75 1 -0.847600 -4.593000 -8.565000 -10.599000 # 1OT TIP3
226 76 2 0.423800 12.430000 -15.104000 -18.702999 # 2HT TIP3
227 76 2 0.423800 11.263000 -16.166000 -18.282000 # 2HT TIP3
228 76 1 -0.847600 12.247000 -16.041000 -18.403000 # 1OT TIP3
229 77 2 0.423800 5.258000 -1.303000 12.229000 # 2HT TIP3
230 77 2 0.423800 5.221000 0.043000 13.153000 # 2HT TIP3
231 77 1 -0.847600 5.763000 -0.482000 12.497000 # 1OT TIP3
232 78 2 0.423800 2.358000 9.869000 -25.718000 # 2HT TIP3
233 78 2 0.423800 1.654000 8.887000 -24.620001 # 2HT TIP3
234 78 1 -0.847600 1.949000 8.968000 -25.572001 # 1OT TIP3
235 79 2 0.423800 -12.035000 6.383000 18.847000 # 2HT TIP3
236 79 2 0.423800 -11.339000 4.907000 18.908001 # 2HT TIP3
237 79 1 -0.847600 -11.531000 5.695000 18.323999 # 1OT TIP3
238 80 2 0.423800 16.535999 7.005000 -24.205000 # 2HT TIP3
239 80 2 0.423800 16.398001 6.434000 -25.729000 # 2HT TIP3
240 80 1 -0.847600 16.966999 6.438000 -24.907000 # 1OT TIP3
241 81 2 0.423800 -17.382000 -15.288000 9.355000 # 2HT TIP3
242 81 2 0.423800 -18.663000 -14.421000 9.877000 # 2HT TIP3
243 81 1 -0.847600 -18.010000 -14.542000 9.131000 # 1OT TIP3
244 82 2 0.423800 -16.531000 -14.740000 -22.917999 # 2HT TIP3
245 82 2 0.423800 -18.108000 -14.316000 -22.938000 # 2HT TIP3
246 82 1 -0.847600 -17.464001 -15.072000 -23.052999 # 1OT TIP3
247 83 2 0.423800 13.871000 -4.458000 -23.775000 # 2HT TIP3
248 83 2 0.423800 15.060000 -3.802000 -24.681000 # 2HT TIP3
249 83 1 -0.847600 14.085000 -3.766000 -24.464001 # 1OT TIP3
250 84 2 0.423800 -11.799000 -11.639000 -19.805000 # 2HT TIP3
251 84 2 0.423800 -10.226000 -11.887000 -20.167000 # 2HT TIP3
252 84 1 -0.847600 -10.858000 -11.511000 -19.490000 # 1OT TIP3
253 85 2 0.423800 1.069000 -18.472000 -5.743000 # 2HT TIP3
254 85 2 0.423800 1.495000 -16.896000 -5.764000 # 2HT TIP3
255 85 1 -0.847600 1.839000 -17.834000 -5.744000 # 1OT TIP3
256 86 2 0.423800 7.490000 -12.185000 15.889000 # 2HT TIP3
257 86 2 0.423800 7.746000 -10.693000 16.500000 # 2HT TIP3
258 86 1 -0.847600 7.154000 -11.243000 15.912000 # 1OT TIP3
259 87 2 0.423800 7.653000 -10.738000 -16.243000 # 2HT TIP3
260 87 2 0.423800 8.095000 -12.253000 -15.823000 # 2HT TIP3
261 87 1 -0.847600 7.782000 -11.369000 -15.478000 # 1OT TIP3
262 88 2 0.423800 -0.222000 15.703000 -13.953000 # 2HT TIP3
263 88 2 0.423800 1.086000 15.573000 -14.923000 # 2HT TIP3
264 88 1 -0.847600 0.543000 16.200001 -14.364000 # 1OT TIP3
265 89 2 0.423800 -12.015000 -6.912000 13.071000 # 2HT TIP3
266 89 2 0.423800 -12.249000 -5.499000 12.286000 # 2HT TIP3
267 89 1 -0.847600 -11.844000 -6.411000 12.222000 # 1OT TIP3
268 90 2 0.423800 -15.193000 -14.869000 18.090000 # 2HT TIP3
269 90 2 0.423800 -16.740000 -15.233000 18.464001 # 2HT TIP3
270 90 1 -0.847600 -15.871000 -14.898000 18.825001 # 1OT TIP3
271 91 2 0.423800 16.131001 -9.938000 -3.115000 # 2HT TIP3
272 91 2 0.423800 15.162000 -11.240000 -3.300000 # 2HT TIP3
273 91 1 -0.847600 16.110001 -10.926000 -3.272000 # 1OT TIP3
274 92 2 0.423800 -8.059000 -4.244000 12.094000 # 2HT TIP3
275 92 2 0.423800 -8.343000 -2.786000 12.773000 # 2HT TIP3
276 92 1 -0.847600 -7.902000 -3.259000 12.011000 # 1OT TIP3
277 93 2 0.423800 -14.966000 -6.930000 -14.768000 # 2HT TIP3
278 93 2 0.423800 -13.424000 -6.938000 -14.229000 # 2HT TIP3
279 93 1 -0.847600 -14.349000 -7.279000 -14.063000 # 1OT TIP3
280 94 2 0.423800 -7.862000 11.410000 -14.338000 # 2HT TIP3
281 94 2 0.423800 -8.770000 12.169000 -15.464000 # 2HT TIP3
282 94 1 -0.847600 -8.457000 12.194000 -14.515000 # 1OT TIP3
283 95 2 0.423800 4.769000 13.733000 -8.546000 # 2HT TIP3
284 95 2 0.423800 5.587000 15.136000 -8.380000 # 2HT TIP3
285 95 1 -0.847600 4.805000 14.605000 -8.056000 # 1OT TIP3
286 96 2 0.423800 15.723000 12.106000 -15.975000 # 2HT TIP3
287 96 2 0.423800 16.186001 13.672000 -16.010000 # 2HT TIP3
288 96 1 -0.847600 15.402000 13.054000 -15.961000 # 1OT TIP3
289 97 2 0.423800 12.692000 -6.125000 -6.802000 # 2HT TIP3
290 97 2 0.423800 11.066000 -5.980000 -6.762000 # 2HT TIP3
291 97 1 -0.847600 11.916000 -5.547000 -7.057000 # 1OT TIP3
292 98 2 0.423800 -13.835000 5.960000 -17.298000 # 2HT TIP3
293 98 2 0.423800 -14.177000 7.503000 -17.708000 # 2HT TIP3
294 98 1 -0.847600 -14.568000 6.629000 -17.423000 # 1OT TIP3
295 99 2 0.423800 2.897000 4.468000 15.759000 # 2HT TIP3
296 99 2 0.423800 1.386000 3.976000 16.135000 # 2HT TIP3
297 99 1 -0.847600 2.342000 3.693000 16.061001 # 1OT TIP3
298 100 2 0.423800 -7.577000 2.958000 19.544001 # 2HT TIP3
299 100 2 0.423800 -8.306000 1.927000 20.580999 # 2HT TIP3
300 100 1 -0.847600 -7.584000 2.021000 19.896000 # 1OT TIP3
301 101 2 0.423800 -3.041000 -10.880000 22.386000 # 2HT TIP3
302 101 2 0.423800 -3.503000 -9.313000 22.392000 # 2HT TIP3
303 101 1 -0.847600 -3.824000 -10.259000 22.350000 # 1OT TIP3
304 102 2 0.423800 -1.215000 14.437000 -21.840000 # 2HT TIP3
305 102 2 0.423800 -2.035000 13.718000 -23.055000 # 2HT TIP3
306 102 1 -0.847600 -1.401000 13.567000 -22.297001 # 1OT TIP3
307 103 2 0.423800 20.002001 -17.249001 -13.952000 # 2HT TIP3
308 103 2 0.423800 20.004999 -18.052999 -15.374000 # 2HT TIP3
309 103 1 -0.847600 19.749001 -17.200001 -14.919000 # 1OT TIP3
310 104 2 0.423800 3.531000 20.004000 -19.559000 # 2HT TIP3
311 104 2 0.423800 2.601000 18.662001 -19.538000 # 2HT TIP3
312 104 1 -0.847600 2.596000 19.659000 -19.476000 # 1OT TIP3
313 105 2 0.423800 -9.475000 -17.419001 -21.695999 # 2HT TIP3
314 105 2 0.423800 -10.564000 -16.216000 -21.511999 # 2HT TIP3
315 105 1 -0.847600 -10.449000 -17.198000 -21.658001 # 1OT TIP3
316 106 2 0.423800 -17.003000 4.700000 -14.140000 # 2HT TIP3
317 106 2 0.423800 -17.038000 3.412000 -15.143000 # 2HT TIP3
318 106 1 -0.847600 -17.583000 3.988000 -14.536000 # 1OT TIP3
319 107 2 0.423800 12.249000 -17.288000 -11.974000 # 2HT TIP3
320 107 2 0.423800 11.557000 -16.874001 -10.554000 # 2HT TIP3
321 107 1 -0.847600 11.464000 -17.438999 -11.373000 # 1OT TIP3
322 108 2 0.423800 5.108000 10.383000 -27.218000 # 2HT TIP3
323 108 2 0.423800 4.804000 11.197000 -25.836000 # 2HT TIP3
324 108 1 -0.847600 5.509000 10.952000 -26.500999 # 1OT TIP3
325 109 2 0.423800 -4.358000 -17.362000 -7.423000 # 2HT TIP3
326 109 2 0.423800 -3.166000 -16.733999 -8.345000 # 2HT TIP3
327 109 1 -0.847600 -3.567000 -17.579000 -7.995000 # 1OT TIP3
328 110 2 0.423800 -4.388000 -0.560000 -14.873000 # 2HT TIP3
329 110 2 0.423800 -3.141000 0.490000 -14.777000 # 2HT TIP3
330 110 1 -0.847600 -3.565000 -0.224000 -15.333000 # 1OT TIP3
331 111 2 0.423800 11.736000 6.925000 -9.771000 # 2HT TIP3
332 111 2 0.423800 11.763000 8.523000 -10.108000 # 2HT TIP3
333 111 1 -0.847600 12.087000 7.623000 -10.397000 # 1OT TIP3
334 112 2 0.423800 17.097000 16.098000 -27.431000 # 2HT TIP3
335 112 2 0.423800 15.689000 15.359000 -27.059999 # 2HT TIP3
336 112 1 -0.847600 16.113001 16.229000 -27.309999 # 1OT TIP3
337 113 2 0.423800 9.411000 13.829000 14.353000 # 2HT TIP3
338 113 2 0.423800 9.624000 12.921000 13.012000 # 2HT TIP3
339 113 1 -0.847600 10.053000 13.583000 13.626000 # 1OT TIP3
340 114 2 0.423800 -10.554000 15.736000 -26.162001 # 2HT TIP3
341 114 2 0.423800 -9.417000 15.573000 -27.323000 # 2HT TIP3
342 114 1 -0.847600 -10.397000 15.536000 -27.129999 # 1OT TIP3
343 115 2 0.423800 -9.438000 5.702000 2.528000 # 2HT TIP3
344 115 2 0.423800 -11.026000 5.765000 2.155000 # 2HT TIP3
345 115 1 -0.847600 -10.209000 5.188000 2.154000 # 1OT TIP3
346 116 2 0.423800 -13.340000 -17.202999 -24.309000 # 2HT TIP3
347 116 2 0.423800 -14.604000 -17.479000 -25.306000 # 2HT TIP3
348 116 1 -0.847600 -14.189000 -16.823000 -24.676001 # 1OT TIP3
349 117 2 0.423800 -5.248000 0.483000 10.145000 # 2HT TIP3
350 117 2 0.423800 -5.273000 -0.756000 9.081000 # 2HT TIP3
351 117 1 -0.847600 -4.696000 -0.219000 9.695000 # 1OT TIP3
352 118 2 0.423800 -1.188000 4.093000 -24.027000 # 2HT TIP3
353 118 2 0.423800 -2.185000 5.285000 -23.525000 # 2HT TIP3
354 118 1 -0.847600 -2.065000 4.295000 -23.589001 # 1OT TIP3
355 119 2 0.423800 -8.485000 -14.949000 -15.180000 # 2HT TIP3
356 119 2 0.423800 -7.562000 -14.313000 -16.368000 # 2HT TIP3
357 119 1 -0.847600 -8.491000 -14.573000 -16.107000 # 1OT TIP3
358 120 2 0.423800 -7.222000 9.850000 5.668000 # 2HT TIP3
359 120 2 0.423800 -8.067000 10.645000 6.818000 # 2HT TIP3
360 120 1 -0.847600 -7.226000 10.140000 6.626000 # 1OT TIP3
361 121 2 0.423800 -2.064000 -11.613000 -14.893000 # 2HT TIP3
362 121 2 0.423800 -3.675000 -11.391000 -15.044000 # 2HT TIP3
363 121 1 -0.847600 -2.849000 -11.717000 -15.503000 # 1OT TIP3
364 122 2 0.423800 -4.089000 17.035000 12.105000 # 2HT TIP3
365 122 2 0.423800 -3.120000 15.756000 11.806000 # 2HT TIP3
366 122 1 -0.847600 -3.848000 16.333000 11.436000 # 1OT TIP3
367 123 2 0.423800 -1.210000 -15.358000 10.030000 # 2HT TIP3
368 123 2 0.423800 -0.983000 -14.996000 11.606000 # 2HT TIP3
369 123 1 -0.847600 -1.643000 -14.998000 10.856000 # 1OT TIP3
370 124 2 0.423800 -8.175000 -16.455000 21.905001 # 2HT TIP3
371 124 2 0.423800 -9.350000 -15.349000 22.159000 # 2HT TIP3
372 124 1 -0.847600 -8.387000 -15.478000 21.924000 # 1OT TIP3
373 125 2 0.423800 9.126000 2.518000 10.224000 # 2HT TIP3
374 125 2 0.423800 8.960000 1.738000 8.798000 # 2HT TIP3
375 125 1 -0.847600 9.520000 1.823000 9.622000 # 1OT TIP3
376 126 2 0.423800 14.519000 -7.295000 -6.446000 # 2HT TIP3
377 126 2 0.423800 14.205000 -8.807000 -6.976000 # 2HT TIP3
378 126 1 -0.847600 14.242000 -7.843000 -7.236000 # 1OT TIP3
379 127 2 0.423800 10.553000 -4.273000 10.603000 # 2HT TIP3
380 127 2 0.423800 11.353000 -5.680000 10.820000 # 2HT TIP3
381 127 1 -0.847600 11.456000 -4.697000 10.671000 # 1OT TIP3
382 128 2 0.423800 -3.746000 14.642000 -19.032000 # 2HT TIP3
383 128 2 0.423800 -2.133000 14.403000 -18.957001 # 2HT TIP3
384 128 1 -0.847600 -2.856000 15.093000 -18.971001 # 1OT TIP3
385 129 2 0.423800 17.466999 19.492001 -18.224001 # 2HT TIP3
386 129 2 0.423800 17.493999 17.858999 -18.250000 # 2HT TIP3
387 129 1 -0.847600 18.037001 18.687000 -18.389000 # 1OT TIP3
388 130 2 0.423800 11.022000 15.696000 2.071000 # 2HT TIP3
389 130 2 0.423800 10.588000 16.476999 3.438000 # 2HT TIP3
390 130 1 -0.847600 10.462000 16.434000 2.448000 # 1OT TIP3
391 131 2 0.423800 10.895000 2.565000 -7.222000 # 2HT TIP3
392 131 2 0.423800 10.682000 4.046000 -6.570000 # 2HT TIP3
393 131 1 -0.847600 11.005000 3.117000 -6.396000 # 1OT TIP3
394 132 2 0.423800 1.702000 13.840000 4.577000 # 2HT TIP3
395 132 2 0.423800 0.331000 14.468000 3.951000 # 2HT TIP3
396 132 1 -0.847600 0.865000 14.346000 4.787000 # 1OT TIP3
397 133 2 0.423800 -7.653000 -6.341000 2.896000 # 2HT TIP3
398 133 2 0.423800 -8.063000 -6.232000 1.320000 # 2HT TIP3
399 133 1 -0.847600 -8.383000 -6.100000 2.257000 # 1OT TIP3
400 134 2 0.423800 -0.385000 8.158000 -25.006001 # 2HT TIP3
401 134 2 0.423800 0.621000 7.247000 -25.914000 # 2HT TIP3
402 134 1 -0.847600 -0.335000 7.482000 -25.740999 # 1OT TIP3
403 135 2 0.423800 -0.381000 4.779000 1.035000 # 2HT TIP3
404 135 2 0.423800 0.938000 5.741000 1.059000 # 2HT TIP3
405 135 1 -0.847600 -0.061000 5.726000 1.034000 # 1OT TIP3
406 136 2 0.423800 -18.353001 17.545000 22.414000 # 2HT TIP3
407 136 2 0.423800 -19.671000 18.323999 22.983000 # 2HT TIP3
408 136 1 -0.847600 -18.778000 18.440001 22.549000 # 1OT TIP3
409 137 2 0.423800 -18.507000 -4.922000 -12.747000 # 2HT TIP3
410 137 2 0.423800 -19.827999 -5.212000 -13.663000 # 2HT TIP3
411 137 1 -0.847600 -19.346001 -4.525000 -13.120000 # 1OT TIP3
412 138 2 0.423800 8.215000 -20.024000 -9.814000 # 2HT TIP3
413 138 2 0.423800 6.800000 -20.000999 -9.000000 # 2HT TIP3
414 138 1 -0.847600 7.534000 -19.437000 -9.377000 # 1OT TIP3
415 139 2 0.423800 -2.089000 -10.674000 -22.496000 # 2HT TIP3
416 139 2 0.423800 -2.309000 -12.196000 -21.944000 # 2HT TIP3
417 139 1 -0.847600 -2.026000 -11.645000 -22.729000 # 1OT TIP3
418 140 2 0.423800 -0.523000 9.927000 -27.500000 # 2HT TIP3
419 140 2 0.423800 0.715000 8.867000 -27.400000 # 2HT TIP3
420 140 1 -0.847600 -0.279000 8.958000 -27.454000 # 1OT TIP3
421 141 2 0.423800 13.388000 -8.811000 4.472000 # 2HT TIP3
422 141 2 0.423800 13.094000 -10.170000 3.616000 # 2HT TIP3
423 141 1 -0.847600 12.677000 -9.440000 4.157000 # 1OT TIP3
424 142 2 0.423800 -0.675000 19.114000 -7.951000 # 2HT TIP3
425 142 2 0.423800 0.362000 19.375999 -9.185000 # 2HT TIP3
426 142 1 -0.847600 -0.600000 19.375999 -8.913000 # 1OT TIP3
427 143 2 0.423800 12.414000 7.769000 -6.987000 # 2HT TIP3
428 143 2 0.423800 13.268000 8.574000 -8.122000 # 2HT TIP3
429 143 1 -0.847600 12.522000 7.928000 -7.968000 # 1OT TIP3
430 144 2 0.423800 1.267000 16.254999 -27.031000 # 2HT TIP3
431 144 2 0.423800 0.075000 16.666000 -25.993999 # 2HT TIP3
432 144 1 -0.847600 0.675000 15.926000 -26.295000 # 1OT TIP3
433 145 2 0.423800 12.541000 -11.352000 8.945000 # 2HT TIP3
434 145 2 0.423800 13.724000 -10.400000 8.346000 # 2HT TIP3
435 145 1 -0.847600 13.355000 -10.819000 9.174000 # 1OT TIP3
436 146 2 0.423800 6.937000 11.685000 23.136999 # 2HT TIP3
437 146 2 0.423800 5.821000 12.876000 23.076000 # 2HT TIP3
438 146 1 -0.847600 6.721000 12.618000 23.424999 # 1OT TIP3
439 147 2 0.423800 -8.050000 -7.530000 -5.862000 # 2HT TIP3
440 147 2 0.423800 -6.623000 -6.814000 -6.201000 # 2HT TIP3
441 147 1 -0.847600 -7.488000 -7.131000 -6.587000 # 1OT TIP3
442 148 2 0.423800 19.764000 10.610000 13.981000 # 2HT TIP3
443 148 2 0.423800 18.476999 9.606000 13.943000 # 2HT TIP3
444 148 1 -0.847600 19.319000 9.835000 14.430000 # 1OT TIP3
445 149 2 0.423800 -9.515000 8.908000 21.487000 # 2HT TIP3
446 149 2 0.423800 -7.949000 8.448000 21.429001 # 2HT TIP3
447 149 1 -0.847600 -8.571000 9.230000 21.406000 # 1OT TIP3
448 150 2 0.423800 -13.992000 9.715000 2.267000 # 2HT TIP3
449 150 2 0.423800 -12.472000 9.126000 2.364000 # 2HT TIP3
450 150 1 -0.847600 -13.069000 9.889000 2.609000 # 1OT TIP3
451 151 2 0.423800 -14.151000 -1.845000 0.873000 # 2HT TIP3
452 151 2 0.423800 -13.338000 -0.928000 -0.205000 # 2HT TIP3
453 151 1 -0.847600 -13.282000 -1.726000 0.394000 # 1OT TIP3
454 152 2 0.423800 17.502001 -18.823000 18.398001 # 2HT TIP3
455 152 2 0.423800 15.870000 -18.829000 18.448000 # 2HT TIP3
456 152 1 -0.847600 16.684000 -18.249001 18.427000 # 1OT TIP3
457 153 2 0.423800 3.439000 9.625000 11.797000 # 2HT TIP3
458 153 2 0.423800 2.810000 11.067000 12.236000 # 2HT TIP3
459 153 1 -0.847600 3.653000 10.538000 12.147000 # 1OT TIP3
460 154 2 0.423800 8.531000 -15.389000 -11.568000 # 2HT TIP3
461 154 2 0.423800 9.815000 -14.380000 -11.554000 # 2HT TIP3
462 154 1 -0.847600 8.850000 -14.470000 -11.798000 # 1OT TIP3
463 155 2 0.423800 -13.741000 -14.675000 -24.507000 # 2HT TIP3
464 155 2 0.423800 -14.534000 -13.902000 -23.306000 # 2HT TIP3
465 155 1 -0.847600 -14.058000 -13.786000 -24.177000 # 1OT TIP3
466 156 2 0.423800 -7.476000 -11.321000 18.952999 # 2HT TIP3
467 156 2 0.423800 -6.286000 -10.429000 19.629000 # 2HT TIP3
468 156 1 -0.847600 -7.157000 -10.391000 19.139000 # 1OT TIP3
469 157 2 0.423800 14.431000 6.787000 25.292000 # 2HT TIP3
470 157 2 0.423800 15.472000 7.102000 26.510000 # 2HT TIP3
471 157 1 -0.847600 14.928000 7.508000 25.777000 # 1OT TIP3
472 158 2 0.423800 -14.164000 -11.214000 -11.310000 # 2HT TIP3
473 158 2 0.423800 -13.976000 -9.886000 -10.378000 # 2HT TIP3
474 158 1 -0.847600 -14.382000 -10.242000 -11.219000 # 1OT TIP3
475 159 2 0.423800 -10.098000 15.016000 13.166000 # 2HT TIP3
476 159 2 0.423800 -9.359000 13.569000 13.332000 # 2HT TIP3
477 159 1 -0.847600 -9.893000 14.147000 12.715000 # 1OT TIP3
478 160 2 0.423800 -2.606000 6.572000 17.465000 # 2HT TIP3
479 160 2 0.423800 -2.950000 7.037000 15.937000 # 2HT TIP3
480 160 1 -0.847600 -3.025000 7.286000 16.902000 # 1OT TIP3
481 161 2 0.423800 5.140000 -18.895000 -16.166000 # 2HT TIP3
482 161 2 0.423800 5.930000 -19.361000 -14.815000 # 2HT TIP3
483 161 1 -0.847600 5.471000 -18.598000 -15.270000 # 1OT TIP3
484 162 2 0.423800 -0.900000 1.754000 0.892000 # 2HT TIP3
485 162 2 0.423800 -2.368000 1.918000 1.590000 # 2HT TIP3
486 162 1 -0.847600 -1.382000 2.004000 1.733000 # 1OT TIP3
487 163 2 0.423800 -18.464001 17.204000 8.387000 # 2HT TIP3
488 163 2 0.423800 -17.832001 15.732000 8.072000 # 2HT TIP3
489 163 1 -0.847600 -17.617001 16.677000 8.315000 # 1OT TIP3
490 164 2 0.423800 -4.566000 13.760000 4.437000 # 2HT TIP3
491 164 2 0.423800 -5.075000 15.296000 4.658000 # 2HT TIP3
492 164 1 -0.847600 -4.284000 14.719000 4.456000 # 1OT TIP3
493 165 2 0.423800 -0.306000 -14.260000 -22.667000 # 2HT TIP3